% Model:              turbulent.mph         
% Version:            COMSOL 6.1.0.282      
% Date:               May 11 2025, 03:41    
% Dimension:          2                     
% Nodes:              1274                  
% Elements:           1274                  
% Expressions:        0                     
% Description:                              
% Length unit:        m                     
% Coordinates
180                      180                      
180                      178.2                    
156.5884259308922        180                      
180                      -180                     
156.5884259308922        -180                     
180                      -178.2                   
180.0000000000001        176.4                    
136.1153492079425        180                      
136.1153492079425        -180                     
180                      -176.4                   
179.9999999999999        174.6                    
118.2119451366689        180                      
118.2119451366689        -180                     
180                      -174.6                   
180                      172.8                    
102.5556819537157        180                      
102.5556819537157        -180                     
180                      -172.8                   
180                      171                      
88.86451038220457        180                      
88.86451038220457        -180                     
180                      -171                     
180                      169.2                    
76.89178248346501        180                      
76.89178248346499        -180                     
180                      -169.2                   
180                      167.4                    
66.42180826770573        180                      
66.42180826770573        -180                     
180                      -167.4                   
180.0000000000001        165.6000000000001        
57.26597001548886        180                      
57.26597001548885        -179.9999999999999       
180                      -165.6                   
180                      163.8                    
49.25932430908604        180                      
49.25932430908599        -180                     
180                      -163.8                   
180                      162                      
42.25763055894389        180                      
42.25763055894389        -180                     
180                      -162                     
180                      160.2                    
36.1347524938416         180                      
36.1347524938416         -180                     
180                      -160.2                   
180                      158.4                    
30.78038580230361        180                      
30.78038580230361        -180                     
180                      -158.4                   
180                      156.6                    
26.09807098848205        180                      
26.09807098848205        -180                     
180                      -156.6                   
180                      154.8                    
22.0034556438921         180                      
22.00345564389209        -180                     
180                      -154.8                   
180                      153                      
18.42277482963739        180                      
18.42277482963738        -180                     
180                      -153                     
180                      151.2                    
15.29152219304674        180                      
15.29152219304674        -180                     
180                      -151.2                   
12.55328787874452        180                      
180                      149.4                    
12.55328787874453        -180                     
180                      -149.4                   
10.15874229899659        180                      
180                      147.6                    
10.1587422989966         -180                     
180                      -147.6                   
8.064747455844737        180                      
180                      145.8                    
8.064747455844753        -180                     
180.0000000000001        -145.8                   
6.233579805401368        180                      
180                      144                      
6.233579805401348        -180                     
180                      -144                     
4.632250664120799        180                      
180                      142.2                    
4.632250664120789        -180                     
180                      -142.2                   
3.231911914092371        180                      
180                      140.4                    
3.231911914092394        -180                     
180                      -140.4                   
2.007336301071911        180                      
180                      138.6                    
2.007336301071917        -180                     
180                      -138.6                   
0.9364629627643118       179.9999999999999        
180                      136.8                    
0.9364629627643255       -180                     
180                      -136.8                   
5.51091059616309E-15     180                      
180                      135                      
5.51091059616309E-15     -180                     
180                      -135                     
-1.104458153202217       179.9966060865744        
180                      133.2                    
-1.104455748990971       -179.9965876467644       
180                      -133.2                   
-2.208874201138709       179.9864263594413        
-2.208864857058954       -179.9863546976354       
180                      131.4                    
180                      -131.4                   
-3.313206689385508       179.9694638383168        
-3.313186278927831       -179.9693073184796       
180                      129.6                    
180                      -129.6                   
-4.417414163518662       179.9457215429167        
-4.417378969321492       -179.945451675164        
180                      127.8                    
180                      -127.8                   
-5.521455169114208       179.9152024929568        
-5.521401882963832       -179.9147939335551       
180                      126                      
180                      -126                     
-6.625288251748196       179.8779097081529        
-6.62521397457874        -179.8773402595197       
180                      124.2                    
179.9999999999999        -124.2                   
-7.728871956996663       179.8338462082209        
-7.728774198890108       -179.8330968189245       
180                      122.4                    
180.0000000000001        -122.4                   
-8.832164830435659       179.7830150128767        
-8.832041510621833       -179.7820697776362       
180                      120.6                    
180                      -120.6                   
-9.935125417641226       179.7254191418362        
-9.934974864497802       -179.7242653015217       
180                      118.8                    
180                      -118.8                   
-11.0377122641894        179.6610616148152        
-11.03753321524191       -179.6596895564475       
180                      117                      
180                      -117                     
-12.13988391565624       179.5899454515296        
-12.13967551757804       -179.5883487082803       
180                      115.2                    
180                      -115.2                   
-13.24159891761778       179.5120736716951        
-13.2413607262301        -179.5102489228871       
180                      113.4                    
180                      -113.4                   
-14.34281581565007       179.4274492950278        
-14.34254779592196       -179.4253963661345       
180                      111.6                    
180                      -111.6                   
-15.44349315532914       179.3360753412434        
-15.44319568137754       -179.333797203889        
180                      109.8                    
180                      -109.8                   
-16.54358948223105       179.2379548300577        
-16.54326333732071       -179.2354576020177       
180                      108                      
180                      -108                     
-17.64306334193183       179.1330907811868        
-17.64270971847537       -179.130383726387        
180                      106.2                    
180                      -106.2                   
-18.74187328000754       179.0214862143464        
-18.74149377956541       -179.0185817428638       
180                      104.4                    
180                      -104.4                   
-19.83997784203421       178.9031441492523        
-19.83957447531473       -178.9000578173148       
180                      102.6                    
180                      -102.6                   
-20.93733557358789       178.7780676056205        
-20.9369107604472        -178.7748181156066       
180                      100.8                    
180                      -100.8                   
-22.03390502024462       178.6462596031668        
-22.03346158968675       -178.6428688036062       
180                      99.00000000000001        
180                      -99.00000000000001       
-23.12964472758044       178.5077231616069        
-23.12918591775724       -178.5042160471802       
180                      97.19999999999999        
180                      -97.19999999999999       
-24.22451324117141       178.3624613006569        
-24.22404269938257       -178.3588660121951       
180                      95.39999999999999        
180                      -95.40000000000002       
-25.31846910659357       178.2104770400327        
-25.31799088928663       -178.206824864518        
180.0000000000001        93.59999999999999        
180                      -93.60000000000002       
-26.41147080362483       178.0517733813203        
-26.41098944219331       -178.0480987700153       
179.9999999999999        91.79999999999998        
180                      -91.8                    
-27.50347608474019       177.8863547757974        
-27.50299731282652       -177.8826938945539       
180                      90                       
180                      -90                      
-28.59444396719812       177.7142297646356        
-28.59397345591012       -177.7106164040004       
180                      88.2                     
179.9999999999999        -88.19999999999999       
-29.68433390698284       177.5354074918605        
-29.68387682616805       -177.5318724642217       
180                      86.39999999999999        
180.0000000000001        -86.40000000000003       
-30.77310536007853       177.3498971014974        
-30.77266637832415       -177.3464682410845       
180                      84.59999999999998        
180                      -84.60000000000002       
-31.8607177824694        177.1577077375718        
-31.86030106710234       -177.1544099004553       
180                      82.79999999999998        
180                      -82.79999999999998       
-32.94713063013966       176.9588485441091        
-32.94673984722651       -176.9557036082011       
180                      81                       
180                      -81                      
-34.03230335907351       176.7533286651347        
-34.03194167342056       -176.7503555301885       
180                      79.2                     
180                      -79.20000000000002       
-35.11619542525516       176.5411572446741        
-35.11586550040835       -176.5383718322841       
180                      77.39999999999999        
180                      -77.40000000000001       
-36.19876628466879       176.3223434267527        
-36.1984702829138        -176.3197586803549       
180                      75.59999999999998        
180                      -75.60000000000001       
-37.27997539329863       176.0968963553958        
-37.2797149756608        -176.0945222402675       
180                      73.79999999999998        
180                      -73.79999999999998       
-38.35978220712887       175.8648251746291        
-38.35955853337325       -175.8626686778885       
180                      71.99999999999999        
180                      -72                      
-39.4381461821437        175.6261390284777        
-39.43795991077501       -175.6242041590847       
180                      70.19999999999999        
180                      -70.2                    
-40.51502677432736       175.3808470609673        
-40.51487806258999       -175.379134849723        
180                      68.39999999999998        
180                      -68.40000000000001       
-41.59038343966402       175.1289584161232        
-41.59027194354209       -175.1274669156699       
180                      66.59999999999999        
180                      -66.60000000000001       
-42.66417563413791       174.8704822379708        
-42.6641005083552        -174.8692065227922       
180                      64.8                     
180                      -64.8                    
-43.73636281373319       174.6054276705356        
-43.7363227117532        -174.6043598369566       
180                      62.99999999999999        
180                      -63                      
-44.80690443443411       174.333803857843         
-44.80689750845999       -174.33293302403         
180                      61.2                     
180                      -61.2                    
-45.87575995222485       174.0556199439184        
-45.87578385319947       -174.0549322498788       
180                      59.39999999999999        
180                      -59.40000000000001       
-46.94288882308962       173.7708850727873        
-46.9429407006955        -173.77036368037         
180.0000000000001        57.6                     
180                      -57.6                    
-48.00825050301263       173.479608388475         
-48.00832700567202       -173.4792334813702       
179.9999999999999        55.79999999999998        
180                      -55.8                    
-49.07180444797805       173.181799035007         
-49.07190172285288       -173.1815478187461       
180                      54                       
180                      -54                      
-50.13351011397012       172.8774661564088        
-50.13362380696199       -172.8773128583646       
180                      52.2                     
180                      -52.2                    
-51.19332695697303       172.5666188967057        
-51.19345221272325       -172.5665347660922       
180                      50.4                     
180                      -50.4                    
-52.25121443297098       172.2492663999232        
-52.25134589486054       -172.2492197077958       
180                      48.59999999999999        
180                      -48.59999999999999       
-53.30713187170235       171.9254178327051        
-53.30726417705198       -171.9253768093907       
180                      46.79999999999998        
180                      -46.80000000000001       
-54.36103817876          171.5950845648763        
-54.36117022940498       -171.5950427291869       
180                      45                       
180                      -45                      
-55.41289431971081       171.2582815991801        
-55.41302611080594       -171.2582389530377       
180                      43.19999999999999        
180                      -43.2                    
-56.46266166184796       170.9150242591162        
-56.46279318854801       -170.9149808044425       
180                      41.4                     
180                      -41.4                    
-57.51030157246461       170.5653278681842        
-57.51043282992435       -170.5652836069013       
180                      39.59999999999999        
180                      -39.59999999999999       
-58.55577541885393       170.2092077498839        
-58.55590640222817       -170.2091626839134       
180                      37.79999999999998        
180                      -37.8                    
-59.59904456830911       169.8466792277149        
-59.59917527275258       -169.8466333589787       
180                      35.99999999999999        
180                      -36                      
-60.64007038812331       169.477757625177         
-60.64020080879079       -169.4777109555969       
180.0000000000001        34.19999999999999        
180                      -34.2                    
-61.67881424558966       169.1024582657697        
-61.67894437763597       -169.1024107972675       
180                      32.39999999999999        
180                      -32.4                    
-62.71523750800139       168.7207964729927        
-62.71536734658128       -168.7207482074904       
180                      30.59999999999999        
180                      -30.59999999999999       
-63.74930154265162       168.3327875703458        
-63.74943108291988       -168.3327385097651       
180                      28.79999999999999        
180                      -28.8                    
-64.78096771683356       167.9384468813286        
-64.78109695394495       -167.9383970275914       
180                      26.99999999999999        
180                      -27                      
-65.81019739784034       167.5377897294407        
-65.81032632694964       -167.5377390844688       
180                      25.19999999999999        
180                      -25.2                    
-66.83695195296514       167.1308314381819        
-66.83708056922717       -167.1307800038972       
180                      23.4                     
180                      -23.4                    
-67.86119274950114       166.7175873310518        
-67.86132104807064       -166.7175351093761       
180                      21.59999999999999        
180                      -21.6                    
-68.88288115474151       166.2980727315502        
-68.88300913077327       -166.2980197244053       
180                      19.79999999999998        
180                      -19.8                    
-69.90197853597945       165.8723029631766        
-69.9021061846282        -165.8722491724844       
180                      18                       
180                      -18                      
-70.91844626050805       165.4402933494308        
-70.91857357692862       -165.4402387771131       
180                      16.19999999999999        
180                      -16.2                    
-71.93224569562052       165.0020592138123        
-71.93237267496767       -165.002003861791        
180                      14.40000000000001        
180.0000000000001        -14.4                    
-72.94333820861006       164.5576158798211        
-72.94346484603855       -164.5575597500179       
180                      12.59999999999999        
180                      -12.6                    
-73.95168516676978       164.1069786709566        
-73.95181145743443       -164.1069217652935       
180                      10.79999999999998        
180                      -10.8                    
-74.95724793739289       163.6501629107186        
-74.95737387644844       -163.6501052311172       
180                      8.999999999999998        
180                      -9                       
-75.9599878877725        163.1871839226066        
-75.96011347037378       -163.187125470989        
180                      7.19999999999999         
180                      -7.200000000000001       
-76.95986638520189       162.7180570301205        
-76.95999160650364       -162.7179978084085       
180                      5.400000000000007        
179.9999999999999        -5.399999999999999       
-77.95684479697411       162.2427975567599        
-77.95696965213114       -162.2427375668752       
180                      3.599999999999995        
180.0000000000001        -3.6                     
-78.95088449038242       161.7614208260245        
-78.95100897454947       -161.761360069889        
180                      1.799999999999985        
180                      -1.8                     
-79.94194664237013       161.2739423120919        
-79.9420707506266        -161.2738807917341       
180                      0                        
-80.9299926963984        160.7803804814982        
-80.93011642411066       -160.7803181995094       
-81.91498669774751       160.280756548191         
-81.91511004044108       -160.2806935072445       
-82.89689296948902       159.7750918277383        
-82.89701592268933       -159.7750280305074       
-83.87567583469445       159.2634076357078        
-83.87579839392703       -159.2633430848661       
-84.85129961643534       158.7457252876675        
-84.85142177722565       -158.7456599858882       
-85.82372863778322       158.2220660991855        
-85.82385039565679       -158.2220000491419       
-86.79292722180962       157.6924513858294        
-86.79304857229191       -157.692384590195        
-87.7588596915861        157.1569024631673        
-87.75898063020257       -157.1568349246153       
-88.72149037018416       156.615440646767         
-88.72161089246032       -156.6153723679708       
-89.68078358067537       156.0680872521964        
-89.68090368213669       -156.0680182358294       
-90.63670364613122       155.5148635950235        
-90.6368233223032        -155.514793843759        
-91.58921488962329       154.9557909908161        
-91.58933413603141       -154.9557205073274       
-92.5382816342231        154.3908907551422        
-92.53840044639281       -154.3908195421027       
-93.48386820300217       153.8201842035696        
-93.48398657645899       -153.8201122636526       
-94.42593891903206       153.2436926516663        
-94.42605684930146       -153.2436199875452       
-95.3644581053843        152.6614374150001        
-95.36457558799177       -152.6613640293482       
-96.2993900851304        152.073439809139         
-96.29950711560141       -152.0733657046297       
-97.23069918134189       151.4797211496508        
-97.23081575520197       -151.4796463289574       
-98.15834971709036       150.8803027521034        
-98.15846582986495       -150.8802272178993       
-99.08230601544727       150.2752059320648        
-99.08242166266191       -150.2751296870234       
-100.0025323994842       149.6644520051029        
-100.0026475766644       -149.6643750518975       
-100.9189931922727       149.0480622867856        
-100.9191078949438       -149.0479846280894       
-101.8316527168843       148.4260580926806        
-101.8317669405719       -148.4259797311672       
-102.7404752963905       147.7984607383561        
-102.7405890366201       -147.7983816766987       
-103.6454252538629       147.1652915393799        
-103.6455385061598       -147.1652117802518       
-104.5464669123729       146.5265718113198        
0                        0                        
-0.0001521865236965964   2.149367456013734E-05    
-104.5465796722628       -146.5264913573944       
-0.0001521864467660214   -2.149366364692321E-05   
-105.4435643648138       145.8823239732681        
-0.0003111654769340366   4.404485455156552E-05    
-105.4436766278341       -145.8822428276157       
-0.0003111653247415328   -4.404483296424001E-05   
-106.3366841346509       145.2325742069823        
-0.0004772400367999561   6.759987882012303E-05    
-106.3367958968104       -145.2324923729758       
-0.0004772398104616116   -6.759984671950096E-05   
-107.2257945062465       144.577349373705         
-0.0006507269139685788   9.220331073206517E-05    
-107.225905763568        -144.5772668547132       
-0.0006507266150501838   -9.220326834284271E-05   
-108.1108637671728       143.9166763335554        
-0.0008319569569569822   0.0001179016808436341    
-108.110974515679        -143.9165931329471       
-0.0008319565875286295   -0.0001179016284621032   
-108.9918602050019       143.2505819466527        
-0.001021275783372062    0.0001447435727282084    
-108.9919704407154       -143.2504980677966       
-0.001021275346070629    -0.0001447435107310798   
-109.8687521073059       142.5790930731162        
-0.001219044439354833    0.0001727797124555805    
-109.8688618262493       -142.579008519381        
-0.00121904393744906     -0.0001727796413091652   
-110.7415077616567       141.9022365730651        
-0.001425640088482736    0.0002020630618702667    
-110.7416169598529       -141.9021513478195       
-0.001425639525947129    -0.000202062982140895    
-111.6100954556266       141.2200393066186        
-0.001641456731447075    0.0002326489158208639    
-111.6102041290983       -141.2199534132314       
-0.001641456113043279    -0.0002326488281863508   
-112.4744834767877       140.5325281338959        
-0.001866905957881718    0.0002645950034976853    
-112.4745916215575       -140.5324415757358       
-0.001866905289246384    -0.0002645949087596985   
-113.334640112712        139.8397299150162        
-0.002102417731780839    0.0002979615940412104    
-113.3347477248027       -139.8396426954521       
-0.002102417019521877    -0.000297961493138807    
-114.1905336509716       139.1416715100989        
-0.002348441212007888    0.0003328116065892784    
-114.1906407264058       -139.1415836324993       
-0.002348440466514435    -0.000332811500996794    
-115.0421323791386       138.4383797792631        
-0.002605445609465334    0.000369210724936425     
-115.0422389139391       -138.4382912469968       
-0.002605444837158565    -0.0003692106155656506   
-115.8894045847851       137.729881582628         
-0.002873921082565007    0.0004072275169842901    
-115.8895105749746       -137.7297923990637       
-0.002873920293667283    -0.0004072274052848596   
-116.7323185554833       137.0162037803128        
-0.003154379672712462    0.0004469335591676194    
-116.7324239970844       -137.0161139488194       
-0.003154378878906699    -0.0004469334467952087   
-117.5708425788052       136.2973732324369        
-0.003447356281595516    0.0004884035660459962    
-117.5709474678407       -136.2972827563829       
-0.003447355496178264    -0.0004884034548837522   
-118.4049449423229       135.5734167991193        
-0.003753409692147487    0.0005317155252570989    
-118.4050492748154       -135.5733256818736       
-0.003753408930192681    -0.0005317154174385316   
-119.2345939336084       134.8443613404793        
-0.004073123635139458    0.0005769508380329148    
-119.2346977055808       -134.8442695854106       
-0.004073122913681101    -0.000576950735967415    
-120.059757840234        134.1102337166362        
-0.004407107903443671    0.0006241944654859882    
-120.0598610477088       -134.1101413271132       
-0.0044071072416706      -0.0006241943718859891   
-120.8804049497717       133.3710607877092        
-0.004755999516101704    0.0006735350808783553    
-120.8805075887717       -133.3709677671006       
-0.004755998935573594    -0.0006735349987894305   
-121.6965035497935       132.6268694138175        
-0.005120463934426837    0.000725065228091347     
-121.6966056163414       -132.6267757654921       
-0.005120463459307656    -0.0007250651609246881   
-122.5080219278717       131.8776864550803        
-0.005501196332470205    0.0007788814865198663    
-122.5081234179901       -131.8775921824068       
-0.005501195989782223    -0.000778881438087574    
-123.3149283715782       131.1235387716168        
-0.005898922924284776    0.000835084642620028     
-123.3150292812899       -131.123443877964        
-0.005898922744184681    -0.0008350846171734172   
-124.1171911684852       130.3644532235463        
-0.006314402350530617    0.0008937798683441794    
-124.1172914938129       -130.3643577122828       
-0.006314402366610174    -0.0008937798706154272   
-124.9147786061647       129.600456670988         
-0.006748427127079047    0.0009550769067022138    
-124.9148783431311       -129.6003605454826       
-0.006748427376692023    -0.0009550769419495734   
-125.7076589721889       128.8315759740611        
-0.00720182515839291     0.001019090264692778     
-125.7077581168167       -128.8314792376826       
-0.007201825683008319    -0.001019090338749343    
-126.4958005541299       128.0578379928849        
-0.007675461318584645    0.001085939413852264     
-126.4958991024418       -128.0577406490019       
-0.00767546216417159     -0.001085939533179012    
-127.2791716395598       127.2792695875785        
-0.008170239103184677    0.00115574899867353      
-127.2792695875785       -127.2791716395598       
-0.008170240320626698    -0.001155749170416305    
-128.0577406490019       126.4958991024419        
-0.008687102354788671    0.001228649053149781     
-128.0578379928848       -126.4958005541299       
-0.008687104000335429    -0.001228649285201309    
-128.8314792376825       125.7077581168168        
-0.009227037065894866    0.00130477522570216      
-128.8315759740611       -125.707658972189        
-0.009227039201648949    -0.001304775526768729    
-129.6003605454826       124.9148783431312        
-0.009791073262391642    0.001384269012752062     
-129.600456670988        -124.9147786061648       
-0.009791075956834138    -0.001384269392425359    
-130.3643577122828       124.1172914938129        
-0.01038028697131116     0.001467278001201061     
-130.3644532235463       -124.1171911684852       
-0.01038029029987072     -0.001467278470035768    