% Model:              test.mph
% Version:            COMSOL 6.1.0.282
% Date:               May 13 2025, 20:36
% Dimension:          2
% Nodes:              988
% Expressions:        4
% Description:        Velocity magnitude, Velocity field, x-component, Velocity field, y-component, Pressure
% Length unit:        m
% x;y;spf.U (m/s);u (m/s);v (m/s);p (Pa)
-4.717009359930605;-4.704965282691432;50.01163486417443;50.00059993547402;-1.0505369485092904;65.94117240291548
-5;-4.565217391304348;50;50;0;97.18108854304502
-5;-5;50;50;0;-0.0904948241232041
-4.565217391304355;-5;50.02292771740567;49.99684443604943;-1.6151915856222654;-0.027000392012168296
-4.675481564912809;-4.345007100151808;50.014032579555526;49.99950279784475;-1.2054770164362705;146.44219670905656
-5;-4.130434782608694;50;50;0;194.36048098878896
-4.1304347826087024;-5;50.09820651660121;49.994013703275265;-3.229379199900384;-0.018720280713444934
-4.344347403198111;-4.614601280079113;50.061336602874356;50.002059170912;-2.435467333983801;86.14634104122068
-4.660152162798551;-3.918304408311698;50.013640369327895;49.99776094073948;-1.2602078817125257;241.80624741033003
-5;-3.69565217391304;50;50;0;291.2780214375635
-3.8886917331664113;-4.646613588399154;50.17618965955567;50.0060423506339;-4.128648347620547;78.84558198046807
-3.6956521739130506;-5;50.22442345683398;49.99053892620899;-4.841356156962482;0.02119063612701511
-4.646204312584216;-3.4869024993092936;50.01104220801319;49.99406075838193;-1.3031621613953523;337.87707745309837
-5;-3.260869565217387;50;50;0;387.3791600243988
-3.467010090466807;-4.643960782898766;50.34081353344455;50.017990766247756;-5.691933495446642;78.83318689234028
-3.2608695652173996;-5;50.401802276192456;49.98862543296669;-6.440419241862666;0.11986670886154609
-4.645626619060874;-3.0491202317978714;50.00350981836763;49.98706922818814;-1.282148248805564;434.2062855254831
-5;-2.826086956521734;50;50;0;481.5569536493519
-3.041832173819527;-4.641233644411722;50.5681615222991;50.04518509776292;-7.253854718422438;78.0573089082822
-2.8260869565217472;-5;50.63149127679389;49.99394049650374;-8.00960813923495;0.1912976168953925
-4.6437724713302755;-2.613533976583772;49.991948174058905;49.97654259820939;-1.2409964412333017;527.5195832961231
-5;-2.391304347826082;50;50;0;572.0152257951776
-2.606703584779742;-4.6416602083100225;50.869232177973096;50.098943435278464;-8.818993652639861;75.33352204338173
-2.391304347826095;-5;50.91290386751307;50.0135359844162;-9.52732903589106;0.2501637768729521
-4.643435903175561;-2.1768400711413305;49.97568167902825;49.962268200047355;-1.1578063698639935;616.3225124092731
-5;-1.9565217391304284;50;50;0;656.1569326917146
-2.172537114358365;-4.643079426925552;51.24035335478495;50.189818906645165;-10.322591246454827;70.88820128418571
-1.9565217391304435;-5;51.24363897298648;50.05705778825253;-10.963644502505849;0.3266661838010528
-4.643844773572367;-1.7412224933960243;49.95590539531958;49.94538987697302;-1.0249458050459677;697.1267856236826
-5;-1.5217391304347758;50;50;0;730.6235784207655
-1.7384320169566494;-4.644518756341638;51.67934921830071;50.32872996710114;-11.737720201371884;64.84902417191564
-1.5217391304347918;-5;51.62020238782774;50.136149828500315;-12.288684833393077;0.3797769898750258
-4.644381138175021;-1.3061192521081868;49.93369826319744;49.92667946606903;-0.8371975468476457;766.3338193908338
-5;-1.0869565217391222;50;50;0;791.5405926333643
-1.3040189243287161;-4.645392837380284;52.17795826913045;50.52347512278816;-13.035251844599168;57.48677630154025
-1.0869565217391397;-5;52.035868629374164;50.260363236370345;-13.476925144913372;0.4127881621080915
-4.6450272348914705;-0.8714981463005356;49.914456316516045;49.910909193525406;-0.5950570132766994;819.8879662729493
-5;-0.6521739130434696;50;50;0;834.9820819510574
-0.8691100808569441;-4.645192119815437;52.721452650296335;50.77612480924909;-14.189317070000163;49.30301951077547
-0.6521739130434874;-5;52.480136479734085;50.43412858041304;-14.510802847047499;0.3889241833707231
-4.645525541374551;-0.436902451902537;49.90164234519503;49.90065208420658;-0.3143728975773313;854.0232096652763
-5;-0.21739130434781595;50;50;0;857.8319754549269
-0.4348451995408366;-4.643711265455345;53.29647963426088;51.08671334105747;-15.187575889976827;40.95253191256533
-0.21739130434783593;-5;52.94602331144862;50.660150856437376;-15.389298219849671;0.3307404314294018
-4.645851505512878;-0.0021305754142427226;49.89685603672674;49.89685527095068;-0.008741832452290972;866.0796679282217
-5;0.21739130434783593;50;50;0;858.329035226681
-0.0021382138821739297;-4.641443905992297;53.8860445005518;51.44723066808256;-16.027733729400214;32.887546190760595
0.21739130434781595;-5;53.42528557083207;50.935476229441015;-16.119503702192763;0.2859513264344919
-4.645986198103729;0.43255373798585234;49.90207725780104;49.901181460122615;0.2990042264885857;855.2024381862874
-5;0.6521739130434874;50;50;0;836.4056156726151
0.4331223163937059;-4.6406461674021635;54.47671205455415;51.84621495375421;-16.72370028564011;25.40567972642697
0.6521739130434696;-5;53.91128971258055;51.25437498223587;-16.715747176065637;0.24491081792938477
-4.645706432748836;0.866962916585701;49.913851717808846;49.91049689130738;0.5786997236953213;822.2368417541755
-5;1.0869565217391397;50;50;0;793.8352431390773
-4.64501686426639;1.3011152539278412;49.933497334441206;49.92672580879515;0.8223174946666688;769.7302569397239
-5;1.5217391304347918;50;50;0;733.6317648402236
0.8689689623396026;-4.640120519533654;55.06621131817673;52.27963738682143;-17.295292528331455;19.066695187867253
1.0869565217391222;-5;54.40584096858097;51.61490373412553;-17.201663989727226;0.11371168593884769
1.304140470484057;-4.639955977409957;55.65470868577402;52.74266248005042;-17.766771046362123;13.833197224713231
1.5217391304347758;-5;54.91261485658717;52.013752068639604;-17.60581909852442;0.04795572411190877
-4.644204759592542;1.7351592497486994;49.95475746440223;49.94447165884926;1.0136784725212247;701.494259900902
-5;1.9565217391304435;50;50;0;659.6702903475694
-4.64337975991029;2.169063211253859;49.97440080654605;49.96112543130091;1.1518166569070998;621.557492163247
-5;2.391304347826095;50;50;0;575.7777864763978
1.7391548060325803;-4.640137903952809;56.22359649705521;53.21373448090872;-18.149139529438482;9.669715058196132
1.9565217391304284;-5;55.42269253596364;52.437941940947134;-17.942605522437802;0.06544123633072943
2.174174748272461;-4.64122974855491;56.7613880694758;53.67602375330669;-18.45913458448382;6.6980748464720135
2.391304347826082;-5;55.927589542363535;52.87507905804281;-18.224195088530358;0.06295905811600835
-4.642347455207598;2.6030104966529293;49.99058322143271;49.97509533333544;1.2442898549066728;533.5641757797367
-5;2.8260869565217472;50;50;0;485.27584125791753
-4.642485668922175;3.0331927620867103;50.00239171674098;49.98558204810309;1.296443098157346;441.3193629095146
-5;3.2608695652173996;50;50;0;390.756233681516
2.6091114475247523;-4.644547711690633;57.27629487989801;54.13083310562837;-18.719691836663312;4.581181070024971
2.826086956521734;-5;56.4277115359719;53.32092656001266;-18.465248982036343;0.05024614730517351
3.0438834470763827;-4.653235620067909;57.77860186880387;54.58289742660491;-18.94925176439618;3.012845255163222
3.260869565217387;-5;56.93140037276979;53.77987213657159;-18.679124748730136;0.06379652814841444
-4.647056326888756;3.461372405760288;50.00970756505968;49.992616864685054;1.3073292483514372;346.695317070587
-5;3.6956521739130506;50;50;0;294.05683201103176
-4.647777108409802;3.8727937016240577;50.013938163536075;49.99660910027771;1.3164684196892684;254.47353948513828
-5;4.1304347826087024;50;50;0;196.33099590759355
3.4755696469007447;-4.6551601920005705;58.32096987187638;55.08023646144377;-19.17036979684409;1.8864947283959046
3.69565217391304;-5;57.451289309802576;54.26198122876492;-18.875593672459672;-0.30106907269932737
3.910291758735035;-4.6637597887315;58.89498453773344;55.608331298804615;-19.39929622079751;0.8955418356175523
4.130434782608694;-5;58.01064575536464;54.78016767670443;-19.088432367969684;-0.26812941241335236
-4.606536364393586;4.340152784684524;50.020388616918524;49.99862572554468;1.475365359649574;149.09975745461387
-5;4.565217391304355;50;50;0;98.2008295552133
-4.7021219943272925;4.718016866841017;50.01300920931005;50.000522709871206;1.1175056644983494;63.68339571921276
-5;5;50;50;0;-0.07143196548528664
4.331774676050178;-4.685890117955135;59.384378159686435;56.065214266471735;-19.57539574739826;-0.26249671050628315
4.565217391304348;-5;58.583048604026736;55.31553550960705;-19.291581454799406;-0.46066626144182377
4.700272651374304;-4.719697927449913;59.69728057734649;56.36727817623912;-19.659482682230173;-0.4644097875663532
5;-5;59.10584917715411;55.80698928140904;-19.47001166659091;-0.35720164739998017
-4.565217391304348;5;50.02466169224457;49.998038959927136;1.6318325848964017;-0.04941941152815646
5;-4.565217391304355;60.57859198133314;57.18628575587261;-19.98735920246898;1.2442302254886586
-4.338855614257803;4.684713756266505;50.062284222123886;50.000739832651554;2.4815958019403954;71.26482898420589
-4.130434782608694;5;50.10153189767065;49.9950116515665;3.265319043070614;-0.03685434361586093
5;-4.1304347826087024;61.21020193567239;57.78888028186967;-20.17756518446975;3.5602545630224944
4.6043705563528174;-4.347381680876489;60.75833382174851;57.36679420145935;-20.015645176772065;-0.43739523286514814
-3.9262384111073003;4.6486104140900295;50.16479271100263;50.00240726627754;4.033075168550447;79.39438530655208
-3.69565217391304;5;50.230392959924764;49.991071141927534;4.897466997458923;0.010759442142113962
4.639552563528894;-3.8892427123195032;61.169615250414246;57.77014727040463;-20.108006222384958;2.534829117568911
5;-3.6956521739130506;60.1299144240941;56.79549985205248;-19.74532362875795;3.7417286425099925
-3.485312015329861;4.640981499594704;50.33285993027793;50.010212081483296;5.6899451953458415;80.74046905673366
-3.260869565217387;5;50.41176441130066;49.98824670833472;6.520826794751078;0.09020023887836663
4.639648479615507;-3.4682098118361857;59.16227352539001;55.92062407720426;-19.314720073277442;3.733500095404145
5;-3.2608695652173996;53.97711702400929;51.016993000183014;-17.62939554956071;7.3382735765699145
-3.048817159991086;4.640740607565221;50.56493990810788;50.03235750750708;7.31958674732126;79.63027200050475
-2.826086956521734;5;50.646075560793605;49.991028517085226;8.119238727466206;0.17524797685206464
4.638360780662699;-3.0387588312084097;51.12620670022694;48.3240906654917;-16.693450000154794;-0.5253233045056741
5;-2.8260869565217472;35.87986657107988;33.98497012164546;-11.505938944273987;-12.359576000287325
-2.6117031939575552;4.640485229332899;50.868642314818636;50.07985143043157;8.92341031550481;77.31472024732604
-2.391304347826082;5;50.93348229143854;50.00695126936805;9.670803641649027;0.24493575276392873
4.639479245816314;-2.605604362988227;29.97096826844213;28.291257092865475;-9.892608910361;-4.420643643523359
5;-2.391304347826095;8.623176059065766;7.967841760399641;-3.2973721395797213;-9.34699745042211
-2.1755360075972674;4.640083523071036;51.24562764146675;50.1644809804786;10.47087390464908;73.46925651606772
-1.9565217391304284;5;51.27211165794679;50.045962205297776;11.145900628072567;0.32086241597018156
4.640804381175288;-2.1721948608151016;3.7440743410069643;3.223611784642267;-1.904316080093384;6.963279570044157
5;-1.9565217391304435;3.4245395785622237;-2.6620231903329428;-2.154322134516738;-4.6250977219482765
-1.7394241525540115;4.640353659692464;51.69340329276279;50.296963423019605;11.934128137892893;67.80104531082033
-1.5217391304347758;5;51.65813204758113;50.11943043079528;12.51420392745778;0.37938389528244243
4.6411020911554735;-1.739128781764186;3.079346798208723;-2.75007415182661;-1.3854489752760524;4.952633442637006
5;-1.5217391304347918;4.692263767316241;-4.533441761696454;-1.2104730709005305;-1.003359982718176
-1.3044904036505705;4.640650914474979;52.20232221165575;50.485125325869234;13.279102572116999;60.618285572216884
-1.0869565217391222;5;52.084946476672535;50.237511128349865;13.748968146983499;0.4064034074230034
4.64097921037319;-1.305159774611246;4.461595363286059;-4.394505177955119;-0.7708160783360104;3.1941198356718132
5;-1.0869565217391397;5.166350113362638;-5.114826311425748;-0.7278222982219048;-0.1281724548661297
-0.8699170057412655;4.641083426536976;52.759588157358145;50.73275458523681;14.483154170558947;52.32277149818014
-0.6521739130434696;5;52.54403005445871;50.40720243887827;14.832027395127207;0.3892953944494722
4.640760811462852;-0.8704792569229005;5.299447166358177;-5.277017899058134;-0.487054783409209;1.9941084943692886
5;-0.6521739130434874;5.927689927799321;-5.9153176097428535;-0.3827864365408112;-0.2794775716827546
-0.43551300407351806;4.6412503222000865;53.35028131273628;51.03925915113202;15.53211323200047;43.576017678958095
-0.21739130434781595;5;53.02722448722417;50.63168401226411;15.758144272112299;0.3091357133871523
4.640661830001012;-0.43545582101009395;5.8999099468499105;-5.895811658289632;-0.21986875838686934;1.5959817222601347
5;-0.21739130434783593;6.252316011790376;-6.251337519754558;-0.11061069296973929;-0.2550961495061232
-0.0015800159286929996;4.641320887384268;53.956795747913795;51.397029328083256;16.421972586453695;34.98672781817865
0.21739130434783593;5;53.52609838161871;50.90832629811867;16.534373936832463;0.25756942696947643
4.640516404607933;-6.559653279914778E-4;6.059430637928618;-6.059378582163986;0.02511680474076403;1.5019190161619156
5;0.21739130434781595;6.258066705560325;-6.255792244088507;0.1687077059435436;-0.2505814036358959
0.4331408016235726;4.640992621714977;54.559663641369305;51.791597571247785;17.157718894925313;27.15555636076627
0.6521739130434874;5;54.02813606586128;51.22713395282378;17.170330041401957;0.23050888093092045
4.640107551083418;0.4339836130576224;5.901117824902868;-5.894619374137252;0.2768646193215907;1.6367177579491459
5;0.6521739130434696;5.929227845577951;-5.912719261635838;0.4421467831586063;-0.27709153464186786
0.8680477814695919;4.6406631436404515;55.155629365800905;52.21760331438579;17.761344398413232;20.52931702171818
1.0869565217391397;5;54.53255511261448;51.584399804636384;17.687545446040975;0.15600250925266237
4.639635707443618;0.868941633060854;5.316808319433114;-5.289612298420637;0.5370776833851075;1.9909471236718035
5;1.0869565217391222;5.183687512168833;-5.12444048540029;0.78148956193;-0.11680332888417595
1.302775225102797;4.640424831293069;55.75261752173362;52.677206966663384;18.261057656007495;15.073996657629706
1.5217391304347918;5;55.04650724548761;51.9805282157777;18.114708011344216;0.050943565667310585
4.638861665693248;1.3039341134362292;4.4836040490596245;-4.408614131467567;0.8165945802957147;2.958740216556485
5;1.5217391304347758;4.534070472129974;-4.370857708395977;1.2055695497134922;-0.5654457514398448
1.7369639548216742;4.64006243914205;56.34443231518788;53.159725430589994;18.674545377734688;10.663737145095483
1.9565217391304435;5;55.56979226585286;52.409007079982636;18.47424665203889;0.02088493407575871
4.6388471984571416;1.7388196216713292;3.2336685743329316;-3.005509174047198;1.1931165296594062;4.490092867776082
5;1.9565217391304284;3.926610227006286;-3.2694577147967494;2.1746066600620844;-2.7736100708856726
2.170376363582824;4.639145480374276;56.91488594613253;53.644993396216485;19.01365103764039;7.3395296041439755
2.391304347826095;5;56.09291125533567;52.85643061731602;18.777977406947215;0.0689834992766999
4.639779635325658;2.173964688649733;1.374750984711742;0.2917495640300675;1.3434368097734148;6.75742907145963
5;2.391304347826082;4.809116615927869;3.94315889108544;2.7530166336670328;-6.424570900405762
2.6029497134027397;4.636923146691306;57.46508125573299;54.12810202596733;19.297257183197498;5.1018310692914985
2.8260869565217472;5;56.610657410255016;53.31396231629848;19.03649007978012;0.06169536897683927
4.6416905167307245;2.6092949162414105;24.624948898783085;23.180237996259454;8.310515910847377;-2.0065620720583084
5;2.826086956521734;30.929802204270732;29.244746390857923;10.069631221137811;-21.983795697512736
3.0344880378378543;4.637791083886215;58.002875443317414;54.60995665961416;19.547025178478155;3.6005124134844047
3.2608695652173996;5;57.129970368275046;53.783348047198054;19.266161712026157;-0.05150014177513126
4.643437724832727;3.0439600263082087;49.82651444393451;46.914464294931214;16.784355261708367;-2.5342898866402153
5;3.260869565217387;52.84470996388435;49.77582213946948;17.746292613020785;10.390359980454642
3.4641028025606215;4.639410375727201;58.56780924947219;55.12059443541434;19.79667520997226;2.6925355031801974
3.6956521739130506;5;57.67155810646931;54.27825311069699;19.490506757880354;-0.23759289870778202
4.64594468139207;3.477561839391902;58.829109360737846;55.428092847519785;19.71270228721522;5.061426343428928
5;3.69565217391304;59.8561204964403;56.34375400000132;20.202389612907567;2.748498264004295
3.884737835827241;4.640068236356917;59.14706505555301;55.65409897288672;20.02489880628485;0.9597199245562938
4.1304347826087024;5;58.23040888929702;54.79534699824933;19.704072339396475;0.008176868987543617
4.658701360178416;3.90983404204052;61.33936313321082;57.7295528401826;20.73200903097594;2.0173394365856407
5;4.130434782608694;61.445535957504084;57.80888827066875;20.825136878644113;3.6730455584859745
4.327793911266519;4.600893955913115;59.857174503695674;56.318519994439896;20.2757403120515;-0.02505539793335487
4.565217391304355;5;58.79102328265077;55.32210047550523;19.895969883352972;-0.39883451933101094
4.680096525438831;4.32973522544146;61.05611312982089;57.44455664319303;20.68748081783944;0.03131213973805232
5;4.565217391304348;60.79875253193597;57.194517553149886;20.622208206252296;0.9728064613344247
4.714621647735957;4.6991694349713065;60.00338551920139;56.46099031533983;20.311643123514408;-0.3785995201133751
5;5;59.3374657012958;55.833504986366115;20.088667372174925;-0.2639657858191596
-4.330117637591712;-4.137889215677015;50.05874064959881;49.99683868734554;-2.488701809246244;192.8591237530454
-4.020606220602872;-4.325105338078065;50.133294459202176;50.00082146966741;-3.6421237886044615;150.86889074436323
-4.2999915585878465;-3.7049976763364856;50.054078272074825;49.98674311560962;-2.595431440251779;289.9962813821764
-3.9088465215881976;-3.9235939440492404;50.1555569336308;49.99069346070306;-4.063306368057952;241.11924594618543
-3.6664105699188805;-4.291208643943996;50.253539267613554;50.00754735088657;-4.9662276297422006;157.93977246081354
-4.293981149643247;-3.2725928756476743;50.031197025751716;49.96393819418237;-2.5933676865249304;386.8385338913718
-3.9538249310442346;-3.480051243008954;50.107779246877946;49.9570179070651;-3.8840575288000223;341.49923953655025
-3.635982198411028;-3.6113833648264104;50.22363243930621;49.96447839985251;-5.0955032753597935;311.8964555736344
-3.4549930567386875;-3.91452288978396;50.33524681888997;50.00237895855533;-5.779201571462615;242.37768996519762
-3.2481217297895926;-4.284804759530059;50.45749969589486;50.03337071230617;-6.528483034072559;157.81152699014436
-3.9439966021536907;-3.04798368267931;50.03897013876526;49.888754194247404;-3.874369302764506;440.0001693932186
-4.290717093818524;-2.8334960242809077;49.989104451867995;49.924346962736365;-2.5436478223378027;484.1820874081855
-3.606896270940732;-3.25249831437637;50.15974931975862;49.89009538261118;-5.194115375594186;395.0661142697366
-3.2480079625257035;-3.508295688970243;50.390545591917196;49.95595634140687;-6.60374977316196;334.8858766447914
-3.0329629056769956;-3.913044399364622;50.58930672531591;50.047051488619736;-7.387191092934985;239.61325744581782
-2.820567718656529;-4.281414576316492;50.74715664854207;50.09432649171177;-8.113714393140285;154.95470163684843
-3.585514783825475;-2.832536267497338;50.012482769779304;49.74080333062587;-5.20585409145037;494.0920405461089
-3.9330466398011836;-2.6167287020923893;49.92345175621586;49.7785474075639;-3.800954254937339;538.0169598642457
-4.286748623540018;-2.397550609214001;49.925632443124066;49.86617263441979;-2.435898528298163;578.2042854346058
-3.2399898517418184;-3.0507458048556186;50.22119349511518;49.78267046140374;-6.62223510644847;443.95016316076595
-2.93970554089271;-3.2436723687909703;50.49902107173725;49.88408810941352;-7.856773045979621;395.4432435431108
-2.8120008149730498;-3.5641088138638874;50.719876638345816;50.0334809167398;-8.316049155894417;317.3537839985684
-2.600237510386775;-3.92496808804532;50.96037810068566;50.15427508858149;-9.02822388422755;230.28288325432717
-2.3872425932182817;-4.2849815200431065;51.13430775083928;50.2084896947265;-9.686330147795084;147.7846055039054
-3.212738634820614;-2.6193471128070938;49.93998309111648;49.494836492626185;-6.653049805104339;551.6714824905474
-3.570485459568267;-2.4025643790299402;49.76769314675644;49.50701587537305;-5.0871072590686675;596.8243358107158
-3.929825803667149;-2.1818258723345347;49.754466469643084;49.6247290332227;-3.590710522732451;634.6075529447363
-4.2870461640037245;-1.96111096524495;49.8413537532333;49.7915317474968;-2.2279834364197164;666.9572923169334
-1.0833258449321166;-1.1624138863243911;49.24116764743764;42.995981028280475;-24.000795959692766;874.7890766974491
-0.8944592908048403;-1.0484739575961481;52.21456767980971;43.378605060328304;-29.062995389489505;719.0534236391422
-1.1312455472605902;-0.9835561855736659;46.27915459675537;39.33449598451285;-24.383551337627697;1062.0649957238554
-2.8299410008660355;-2.8447831326846833;50.31728744605323;49.619805130447006;-8.34891338709477;494.8432297317012
-0.8709903962859303;-1.223674435890964;53.51424823172403;46.427872790687495;-26.61254200444444;610.597625508864
-1.0936852803946766;-1.3867887867288688;51.201033931991965;46.12724289586236;-22.22213622789468;750.0582714584328
-1.4115695671759325;-1.3547002157498733;48.066713439160246;44.379380528742786;-18.462922973554143;927.4239145977482
-2.5791193110084114;-3.2165121017817877;50.81018089034558;49.93996758176268;-9.363445949122166;395.1423415151798
-2.3796363322878995;-3.5752498227352687;51.18318408216635;50.192673005710596;-10.02067409562539;303.68171514801423
-2.1680891980324986;-3.9317947250614007;51.45515529860179;50.34428374258231;-10.634194903686433;217.24430988896827
-1.9539447649696753;-4.288376497362884;51.61970864696887;50.390973432905035;-11.195718703245982;137.35663855676225
-1.3880555295427974;-1.1080451103515083;45.34939720395272;41.09119202890974;-19.18545710701572;1099.3166627686994
-2.8378273218233065;-2.383973276594843;49.755084266287774;49.07515291786864;-8.197424987958515;618.7382689439751
-2.5290252887182163;-2.571031488885888;50.2617892042236;49.30993943403778;-9.735364760569267;564.5250845758031
-2.413689301891569;-2.188775991030814;49.57096453829785;48.49201712282733;-10.286146052657672;679.0152360151961
-1.7081482048885188;-1.286234663914957;46.055069474739376;43.564176711231774;-14.94094815584477;1033.4712761806643
-1.7317488908544105;-1.6255238304255757;48.50783174645846;46.16554866224288;-14.891334979000648;857.6630970211021
-3.2072500994866573;-2.185738946173765;49.46503139738627;49.046538048993284;-6.420781615431543;663.437918516238
-3.5708266855742576;-1.9676379857559596;49.412146852300225;49.18507077767063;-4.731708903642907;699.3133876035009
-3.930803512699998;-1.7453645277445506;49.534877919790944;49.43050927230893;-3.2138580567244843;725.8530740614561
-4.2882324289774845;-1.5250766941100289;49.74205145934584;49.705372773518725;-1.9098693226902623;746.622508783904
-1.3676399319423798;-0.893270780354274;41.96077181990757;37.30359869759646;-19.21322190396575;1289.2518821586773
-0.9415640675360007;-0.9086935150980828;49.47403094879814;39.20160019575451;-30.181356503889223;891.939792339337
-1.128043151892385;-0.8115429925124008;42.843561859893335;34.740911587706414;-25.072691417111034;1255.6229705315898
-0.7577641260030745;-0.9903070545783385;56.50520022765613;45.489019707203965;-33.519945388456705;472.0676619336395
-0.7005124110484395;-1.1024505796145205;57.848445499468376;48.621638809697906;-31.342924020650063;364.9345361839871
-0.6492195509412816;-1.2403307693518941;58.142590175794375;50.493156477069135;-28.827104282820216;333.65699544095764
-1.38262704675227;-1.6696297568977396;50.43199517494228;47.12532333835167;-17.960791674678735;750.2892573479731
-1.7381849248783954;-1.979869137904852;50.124542029146944;47.977525503210096;-14.512985916776158;707.4937882135532
-2.0727127028183636;-1.9053408945979962;49.04501830114928;47.5017330151093;-12.20652205672618;766.1696062560267
-1.952274365359049;-2.2429878818446936;50.372431778074976;48.69395591916766;-12.894981201187301;637.557880091117
-2.395025836972707;-2.882625496210498;50.80194405425009;49.74738057898443;-10.297361080434056;475.6331474783547
-2.1686483734913167;-2.5550078387693236;50.706424503959965;49.37312019856598;-11.551471241090779;554.1386412999368
-0.804739999594228;-1.4015886357299607;54.942080986459594;48.96067967390365;-24.92958300878863;512.6232325351926
-1.0345128246148894;-1.6579194158973136;53.00885591529748;48.69626289257737;-20.943084437249436;609.3916122534525
-2.1672722994156386;-3.23231396864583;51.370844874768274;50.16003714995773;-11.087577565111589;375.7271159763586
-1.9508154592490707;-3.582006009463387;51.80398916369618;50.4700278267843;-11.680307548860576;283.86929672041964
-1.735555442452989;-3.9359140350598434;52.07641881113762;50.634472113459076;-12.16978348140769;199.38374195421423
-1.5202394278933533;-4.290857147157484;52.196481463370226;50.65094442782971;-12.607716118506902;123.83729921251641
-1.676239307295951;-1.015262991239313;43.1037338943504;40.56048113733473;-14.586954635662812;1213.0462122078673
-2.1424210882146806;-1.5458659100181167;47.34899561421963;45.93835856450084;-11.471468871715722;917.3601629111923
-2.464615306098472;-1.7631109796175404;48.28239376125577;47.31154864698289;-9.633634409770826;822.7029604534024
-2.8310674196485723;-1.9721119512382341;48.976732972407895;48.33028006762259;-7.931229490798472;739.3681192218205
-2.072167541824653;-1.203164709787062;45.17519771674272;43.77058028368827;-11.177423244021705;1081.2831218375723
-3.212083181152544;-1.7574603595564617;48.83648858813233;48.47948510986973;-5.894246440445034;774.7156236951745
-3.574925731860665;-1.533629470704915;48.97904405666508;48.804349051600845;-4.133070330183947;795.8602396059226
-3.9339056170135422;-1.3108149843975572;49.295204506935995;49.22378449347355;-2.652588833708478;806.3551708408694
-4.289543034279255;-1.0905054139934154;49.64146844870974;49.6194638991411;-1.4779012504484434;812.5417033316752
-1.2979494816792578;-0.6837786143201485;37.5087358396325;32.119796153055695;-19.370698474073677;1520.6031837866005
-1.584306573983298;-0.7574387881286083;39.141386326213144;36.47661923483083;-14.195223588765161;1427.0113194957046
-0.8027552977425194;-0.8785123676387286;54.481565065923284;41.51497472966012;-35.28098362047342;604.8866016725887
-0.9596162668405711;-0.7830719991304781;46.76422057829995;34.694492704499275;-31.355773029433326;1068.1712240641189
-1.101693692489975;-0.6669508056403733;39.22213983092036;29.72762473517115;-25.586023147826435;1454.4615756213518
-0.6616547510525664;-0.9494752308723282;58.03458177416992;46.36572096643993;-34.90318897987759;232.60334496478563
-0.5907930745245032;-1.0399663944992301;60.60342484153836;50.79317467982341;-33.05795681025881;105.30521042936338
-0.5458124882935358;-1.138106765089277;60.70258621631429;52.261081585648846;-30.880144508198534;130.33253767557022
-0.5643810495762359;-1.3940107619739577;58.66214185832529;52.29692310612956;-26.57590489593633;290.59762497173966
-0.4161466345439361;-1.2192644865872804;61.47047514150756;54.3604130525995;-28.69781885219621;49.402520004250725
-1.3006289203282904;-2.0219214458654515;52.196886511913135;49.195702372591526;-17.444134532986514;599.9068261204285
-1.6150923979851435;-2.259797865287608;51.30960968811887;49.12741131829669;-14.804509566682588;587.9005170575662
-1.7502139395548661;-2.570574614664133;51.62085697635508;49.78009813627597;-13.662163244378272;515.1998321888176
-1.9609117028609497;-2.904599200827886;51.555838362068165;50.074236638330554;-12.27091252939946;445.0185598363358
-0.9352095357755912;-1.9070327674293042;54.268240360372154;50.40257422355592;-20.115228645234467;502.0046192037981
-1.0859483253006188;-2.1933197902272075;53.58992581371571;50.463779347968504;-18.035717968495202;488.53787596683594
-0.725296862335572;-1.5918882863537098;55.94621275469125;50.805845368629896;-23.425302516126575;434.53829142356335
-1.737366303601816;-3.2333489180026302;52.18058187012479;50.569060586240475;-12.867914972128796;347.80702230001606
-1.5169746094702956;-3.58341981026299;52.605780596132966;50.90243107895633;-13.278202528225757;256.71065601429353
-1.3025046270251635;-3.938945783591721;52.812833063534775;51.034213019106915;-13.590601080055675;176.64630190238594
-1.0860417875783228;-4.2919527617711575;52.84682201294398;50.98959581462062;-13.886962069848254;107.8999234252819
-1.2764372745802455;-0.5486212513049679;33.487832248894954;28.100211207275226;-18.215736022369573;1697.6897655501
-1.968408771802886;-0.8829251705199977;42.170639949978636;40.83911573445153;-10.513301090466625;1262.2573451033197
-2.495247305457368;-1.390079339033025;46.82848564132354;46.017177853472624;-8.67907886019673;955.6595425667819
-2.850432796124102;-1.5534075092754978;47.95074200553261;47.41359080397199;-7.157168850505875;863.3934118900914
-2.4336907704326776;-1.0102536090236012;44.882853273525036;44.216713328643515;-7.704075569809587;1104.0163781411775
-3.2184795815122484;-1.3216659259554204;48.07756303649966;47.81574047353951;-5.010691618500787;881.997637591721
-3.582346303577295;-1.0990277189512354;48.534144446056956;48.42512063007828;-3.2512872947631037;880.1608536389485
-3.9364555632104326;-0.8769047809381533;49.06885434002404;49.031501766735694;-1.9142363336563106;870.5598406201574
-4.291220424828081;-0.6568699693332046;49.56484261694155;49.55591109948339;-0.940903152446457;860.085361683641